VARIABLES ="X", "Y", "Temperature"
ZONE T = "BLOCK1", I = 128, J = 128, F = POINT

0.000000 	 0.000000 	 0.003121 
0.007813 	 0.000000 	 0.006467 
0.015625 	 0.000000 	 0.007765 
0.023438 	 0.000000 	 0.011907 
0.031250 	 0.000000 	 0.015173 
0.039063 	 0.000000 	 0.018526 
0.046875 	 0.000000 	 0.021726 
0.054688 	 0.000000 	 0.026480 
0.062500 	 0.000000 	 0.030678 
0.070313 	 0.000000 	 0.031398 
0.078125 	 0.000000 	 0.033265 
0.085938 	 0.000000 	 0.038409 
0.093750 	 0.000000 	 0.037975 
0.101563 	 0.000000 	 0.039607 
0.109375 	 0.000000 	 0.044197 
0.117188 	 0.000000 	 0.047268 
0.125000 	 0.000000 	 0.049556 
0.132813 	 0.000000 	 0.050644 
0.140625 	 0.000000 	 0.049542 
0.148438 	 0.000000 	 0.052523 
0.156250 	 0.000000 	 0.055887 
0.164063 	 0.000000 	 0.058860 
0.171875 	 0.000000 	 0.061084 
0.179688 	 0.000000 	 0.063939 
0.187500 	 0.000000 	 0.064498 
0.195313 	 0.000000 	 0.065743 
0.203125 	 0.000000 	 0.067652 
0.210938 	 0.000000 	 0.068926 
0.218750 	 0.000000 	 0.072401 
0.226563 	 0.000000 	 0.074226 
0.234375 	 0.000000 	 0.073507 
0.242188 	 0.000000 	 0.075621 
0.250000 	 0.000000 	 0.076573 
0.257813 	 0.000000 	 0.077505 
0.265625 	 0.000000 	 0.080213 
0.273438 	 0.000000 	 0.080699 
0.281250 	 0.000000 	 0.083982 
0.289063 	 0.000000 	 0.086478 
0.296875 	 0.000000 	 0.089092 
0.304688 	 0.000000 	 0.090140 
0.312500 	 0.000000 	 0.090762 
0.320313 	 0.000000 	 0.092501 
0.328125 	 0.000000 	 0.092875 
0.335938 	 0.000000 	 0.093827 
0.343750 	 0.000000 	 0.095724 
0.351563 	 0.000000 	 0.095865 
0.359375 	 0.000000 	 0.096651 
0.367188 	 0.000000 	 0.097312 
0.375000 	 0.000000 	 0.097679 
0.382813 	 0.000000 	 0.098414 
0.390625 	 0.000000 	 0.099634 
0.398438 	 0.000000 	 0.102102 
0.406250 	 0.000000 	 0.101058 
0.414063 	 0.000000 	 0.101133 
0.421875 	 0.000000 	 0.101194 
0.429688 	 0.000000 	 0.102113 
0.437500 	 0.000000 	 0.102368 
0.445313 	 0.000000 	 0.101727 
0.453125 	 0.000000 	 0.101548 
0.460938 	 0.000000 	 0.099712 
0.468750 	 0.000000 	 0.100660 
0.476563 	 0.000000 	 0.100883 
0.484375 	 0.000000 	 0.100933 
0.492188 	 0.000000 	 0.099020 
0.500000 	 0.000000 	 0.099020 
0.507813 	 0.000000 	 0.100933 
0.515625 	 0.000000 	 0.100883 
0.523438 	 0.000000 	 0.100660 
0.531250 	 0.000000 	 0.099712 
0.539063 	 0.000000 	 0.101548 
0.546875 	 0.000000 	 0.101727 
0.554688 	 0.000000 	 0.102368 
0.562500 	 0.000000 	 0.102113 
0.570313 	 0.000000 	 0.101194 
0.578125 	 0.000000 	 0.101133 
0.585938 	 0.000000 	 0.101058 
0.593750 	 0.000000 	 0.102102 
0.601563 	 0.000000 	 0.099634 
0.609375 	 0.000000 	 0.098414 
0.617188 	 0.000000 	 0.097679 
0.625000 	 0.000000 	 0.097312 
0.632813 	 0.000000 	 0.096651 
0.640625 	 0.000000 	 0.095865 
0.648438 	 0.000000 	 0.095724 
0.656250 	 0.000000 	 0.093827 
0.664063 	 0.000000 	 0.092875 
0.671875 	 0.000000 	 0.092501 
0.679688 	 0.000000 	 0.090762 
0.687500 	 0.000000 	 0.090140 
0.695313 	 0.000000 	 0.089092 
0.703125 	 0.000000 	 0.086478 
0.710938 	 0.000000 	 0.083982 
0.718750 	 0.000000 	 0.080699 
0.726563 	 0.000000 	 0.080213 
0.734375 	 0.000000 	 0.077505 
0.742188 	 0.000000 	 0.076573 
0.750000 	 0.000000 	 0.075621 
0.757813 	 0.000000 	 0.073507 
0.765625 	 0.000000 	 0.074226 
0.773438 	 0.000000 	 0.072401 
0.781250 	 0.000000 	 0.068926 
0.789063 	 0.000000 	 0.067652 
0.796875 	 0.000000 	 0.065743 
0.804688 	 0.000000 	 0.064498 
0.812500 	 0.000000 	 0.063939 
0.820313 	 0.000000 	 0.061084 
0.828125 	 0.000000 	 0.058860 
0.835938 	 0.000000 	 0.055887 
0.843750 	 0.000000 	 0.052523 
0.851563 	 0.000000 	 0.049542 
0.859375 	 0.000000 	 0.050644 
0.867188 	 0.000000 	 0.049556 
0.875000 	 0.000000 	 0.047268 
0.882813 	 0.000000 	 0.044197 
0.890625 	 0.000000 	 0.039607 
0.898438 	 0.000000 	 0.037975 
0.906250 	 0.000000 	 0.038409 
0.914063 	 0.000000 	 0.033265 
0.921875 	 0.000000 	 0.031398 
0.929688 	 0.000000 	 0.030678 
0.937500 	 0.000000 	 0.026480 
0.945313 	 0.000000 	 0.021726 
0.953125 	 0.000000 	 0.018526 
0.960938 	 0.000000 	 0.015173 
0.968750 	 0.000000 	 0.011907 
0.976563 	 0.000000 	 0.007765 
0.984375 	 0.000000 	 0.006467 
0.992188 	 0.000000 	 0.003121 
0.000000 	 0.007813 	 0.006660 
0.007813 	 0.007813 	 0.018590 
0.015625 	 0.007813 	 0.027857 
0.023438 	 0.007813 	 0.038316 
0.031250 	 0.007813 	 0.049113 
0.039063 	 0.007813 	 0.057637 
0.046875 	 0.007813 	 0.066337 
0.054688 	 0.007813 	 0.077593 
0.062500 	 0.007813 	 0.088127 
0.070313 	 0.007813 	 0.096769 
0.078125 	 0.007813 	 0.105678 
0.085938 	 0.007813 	 0.114337 
0.093750 	 0.007813 	 0.120210 
0.101563 	 0.007813 	 0.125850 
0.109375 	 0.007813 	 0.132770 
0.117188 	 0.007813 	 0.137832 
0.125000 	 0.007813 	 0.143623 
0.132813 	 0.007813 	 0.150537 
0.140625 	 0.007813 	 0.156852 
0.148438 	 0.007813 	 0.161905 
0.156250 	 0.007813 	 0.168988 
0.164063 	 0.007813 	 0.173278 
0.171875 	 0.007813 	 0.178240 
0.179688 	 0.007813 	 0.184823 
0.187500 	 0.007813 	 0.190322 
0.195313 	 0.007813 	 0.196526 
0.203125 	 0.007813 	 0.203855 
0.210938 	 0.007813 	 0.207377 
0.218750 	 0.007813 	 0.213375 
0.226563 	 0.007813 	 0.215924 
0.234375 	 0.007813 	 0.218627 
0.242188 	 0.007813 	 0.222414 
0.250000 	 0.007813 	 0.225214 
0.257813 	 0.007813 	 0.230763 
0.265625 	 0.007813 	 0.236288 
0.273438 	 0.007813 	 0.242030 
0.281250 	 0.007813 	 0.248799 
0.289063 	 0.007813 	 0.254560 
0.296875 	 0.007813 	 0.260750 
0.304688 	 0.007813 	 0.267996 
0.312500 	 0.007813 	 0.272856 
0.320313 	 0.007813 	 0.277525 
0.328125 	 0.007813 	 0.280456 
0.335938 	 0.007813 	 0.282853 
0.343750 	 0.007813 	 0.284518 
0.351563 	 0.007813 	 0.286347 
0.359375 	 0.007813 	 0.288447 
0.367188 	 0.007813 	 0.290498 
0.375000 	 0.007813 	 0.292430 
0.382813 	 0.007813 	 0.294046 
0.390625 	 0.007813 	 0.294901 
0.398438 	 0.007813 	 0.295819 
0.406250 	 0.007813 	 0.298431 
0.414063 	 0.007813 	 0.300283 
0.421875 	 0.007813 	 0.301902 
0.429688 	 0.007813 	 0.301699 
0.437500 	 0.007813 	 0.301915 
0.445313 	 0.007813 	 0.302066 
0.453125 	 0.007813 	 0.302353 
0.460938 	 0.007813 	 0.303586 
0.468750 	 0.007813 	 0.302973 
0.476563 	 0.007813 	 0.302843 
0.484375 	 0.007813 	 0.302088 
0.492188 	 0.007813 	 0.302586 
0.500000 	 0.007813 	 0.302586 
0.507813 	 0.007813 	 0.302088 
0.515625 	 0.007813 	 0.302843 
0.523438 	 0.007813 	 0.302973 
0.531250 	 0.007813 	 0.303586 
0.539063 	 0.007813 	 0.302353 
0.546875 	 0.007813 	 0.302066 
0.554688 	 0.007813 	 0.301915 
0.562500 	 0.007813 	 0.301699 
0.570313 	 0.007813 	 0.301902 
0.578125 	 0.007813 	 0.300283 
0.585938 	 0.007813 	 0.298431 
0.593750 	 0.007813 	 0.295819 
0.601563 	 0.007813 	 0.294901 
0.609375 	 0.007813 	 0.294046 
0.617188 	 0.007813 	 0.292430 
0.625000 	 0.007813 	 0.290498 
0.632813 	 0.007813 	 0.288447 
0.640625 	 0.007813 	 0.286347 
0.648438 	 0.007813 	 0.284518 
0.656250 	 0.007813 	 0.282853 
0.664063 	 0.007813 	 0.280456 
0.671875 	 0.007813 	 0.277525 
0.679688 	 0.007813 	 0.272856 
0.687500 	 0.007813 	 0.267996 
0.695313 	 0.007813 	 0.260750 
0.703125 	 0.007813 	 0.254560 
0.710938 	 0.007813 	 0.248799 
0.718750 	 0.007813 	 0.242030 
0.726563 	 0.007813 	 0.236288 
0.734375 	 0.007813 	 0.230763 
0.742188 	 0.007813 	 0.225214 
0.750000 	 0.007813 	 0.222414 
0.757813 	 0.007813 	 0.218627 
0.765625 	 0.007813 	 0.215924 
0.773438 	 0.007813 	 0.213375 
0.781250 	 0.007813 	 0.207377 
0.789063 	 0.007813 	 0.203855 
0.796875 	 0.007813 	 0.196526 
0.804688 	 0.007813 	 0.190322 
0.812500 	 0.007813 	 0.184823 
0.820313 	 0.007813 	 0.178240 
0.828125 	 0.007813 	 0.173278 
0.835938 	 0.007813 	 0.168988 
0.843750 	 0.007813 	 0.161905 
0.851563 	 0.007813 	 0.156852 
0.859375 	 0.007813 	 0.150537 
0.867188 	 0.007813 	 0.143623 
0.875000 	 0.007813 	 0.137832 
0.882813 	 0.007813 	 0.132770 
0.890625 	 0.007813 	 0.125850 
0.898438 	 0.007813 	 0.120210 
0.906250 	 0.007813 	 0.114337 
0.914063 	 0.007813 	 0.105678 
0.921875 	 0.007813 	 0.096769 
0.929688 	 0.007813 	 0.088127 
0.937500 	 0.007813 	 0.077593 
0.945313 	 0.007813 	 0.066337 
0.953125 	 0.007813 	 0.057637 
0.960938 	 0.007813 	 0.049113 
0.968750 	 0.007813 	 0.038316 
0.976563 	 0.007813 	 0.027857 
0.984375 	 0.007813 	 0.018590 
0.992188 	 0.007813 	 0.006660 
0.000000 	 0.015625 	 0.008600 
0.007813 	 0.015625 	 0.028146 
0.015625 	 0.015625 	 0.048286 
0.023438 	 0.015625 	 0.065669 
0.031250 	 0.015625 	 0.081721 
0.039063 	 0.015625 	 0.098967 
0.046875 	 0.015625 	 0.116650 
0.054688 	 0.015625 	 0.131848 
0.062500 	 0.015625 	 0.147556 
0.070313 	 0.015625 	 0.165150 
0.078125 	 0.015625 	 0.178514 
0.085938 	 0.015625 	 0.188491 
0.093750 	 0.015625 	 0.201687 
0.101563 	 0.015625 	 0.214250 
0.109375 	 0.015625 	 0.223302 
0.117188 	 0.015625 	 0.231691 
0.125000 	 0.015625 	 0.241581 
0.132813 	 0.015625 	 0.251058 
0.140625 	 0.015625 	 0.262292 
0.148438 	 0.015625 	 0.270583 
0.156250 	 0.015625 	 0.279336 
0.164063 	 0.015625 	 0.288862 
0.171875 	 0.015625 	 0.298462 
0.179688 	 0.015625 	 0.307416 
0.187500 	 0.015625 	 0.317103 
0.195313 	 0.015625 	 0.325792 
0.203125 	 0.015625 	 0.335063 
0.210938 	 0.015625 	 0.342113 
0.218750 	 0.015625 	 0.349664 
0.226563 	 0.015625 	 0.354873 
0.234375 	 0.015625 	 0.361374 
0.242188 	 0.015625 	 0.366852 
0.250000 	 0.015625 	 0.372511 
0.257813 	 0.015625 	 0.380743 
0.265625 	 0.015625 	 0.388462 
0.273438 	 0.015625 	 0.398355 
0.281250 	 0.015625 	 0.407952 
0.289063 	 0.015625 	 0.417616 
0.296875 	 0.015625 	 0.428261 
0.304688 	 0.015625 	 0.438937 
0.312500 	 0.015625 	 0.447981 
0.320313 	 0.015625 	 0.455381 
0.328125 	 0.015625 	 0.461295 
0.335938 	 0.015625 	 0.466755 
0.343750 	 0.015625 	 0.470550 
0.351563 	 0.015625 	 0.474630 
0.359375 	 0.015625 	 0.477705 
0.367188 	 0.015625 	 0.480915 
0.375000 	 0.015625 	 0.483845 
0.382813 	 0.015625 	 0.486483 
0.390625 	 0.015625 	 0.488863 
0.398438 	 0.015625 	 0.490907 
0.406250 	 0.015625 	 0.494686 
0.414063 	 0.015625 	 0.497295 
0.421875 	 0.015625 	 0.500086 
0.429688 	 0.015625 	 0.501110 
0.437500 	 0.015625 	 0.502440 
0.445313 	 0.015625 	 0.503350 
0.453125 	 0.015625 	 0.503772 
0.460938 	 0.015625 	 0.505211 
0.468750 	 0.015625 	 0.504817 
0.476563 	 0.015625 	 0.505099 
0.484375 	 0.015625 	 0.504120 
0.492188 	 0.015625 	 0.504213 
0.500000 	 0.015625 	 0.504213 
0.507813 	 0.015625 	 0.504120 
0.515625 	 0.015625 	 0.505099 
0.523438 	 0.015625 	 0.504817 
0.531250 	 0.015625 	 0.505211 
0.539063 	 0.015625 	 0.503772 
0.546875 	 0.015625 	 0.503350 
0.554688 	 0.015625 	 0.502440 
0.562500 	 0.015625 	 0.501110 
0.570313 	 0.015625 	 0.500086 
0.578125 	 0.015625 	 0.497295 
0.585938 	 0.015625 	 0.494686 
0.593750 	 0.015625 	 0.490907 
0.601563 	 0.015625 	 0.488863 
0.609375 	 0.015625 	 0.486483 
0.617188 	 0.015625 	 0.483845 
0.625000 	 0.015625 	 0.480915 
0.632813 	 0.015625 	 0.477705 
0.640625 	 0.015625 	 0.474630 
0.648438 	 0.015625 	 0.470550 
0.656250 	 0.015625 	 0.466755 
0.664063 	 0.015625 	 0.461295 
0.671875 	 0.015625 	 0.455381 
0.679688 	 0.015625 	 0.447981 
0.687500 	 0.015625 	 0.438937 
0.695313 	 0.015625 	 0.428261 
0.703125 	 0.015625 	 0.417616 
0.710938 	 0.015625 	 0.407952 
0.718750 	 0.015625 	 0.398355 
0.726563 	 0.015625 	 0.388462 
0.734375 	 0.015625 	 0.380743 
0.742188 	 0.015625 	 0.372511 
0.750000 	 0.015625 	 0.366852 
0.757813 	 0.015625 	 0.361374 
0.765625 	 0.015625 	 0.354873 
0.773438 	 0.015625 	 0.349664 
0.781250 	 0.015625 	 0.342113 
0.789063 	 0.015625 	 0.335063 
0.796875 	 0.015625 	 0.325792 
0.804688 	 0.015625 	 0.317103 
0.812500 	 0.015625 	 0.307416 
0.820313 	 0.015625 	 0.298462 
0.828125 	 0.015625 	 0.288862 
0.835938 	 0.015625 	 0.279336 
0.843750 	 0.015625 	 0.270583 
0.851563 	 0.015625 	 0.262292 
0.859375 	 0.015625 	 0.251058 
0.867188 	 0.015625 	 0.241581 
0.875000 	 0.015625 	 0.231691 
0.882813 	 0.015625 	 0.223302 
0.890625 	 0.015625 	 0.214250 
0.898438 	 0.015625 	 0.201687 
0.906250 	 0.015625 	 0.188491 
0.914063 	 0.015625 	 0.178514 
0.921875 	 0.015625 	 0.165150 
0.929688 	 0.015625 	 0.147556 
0.937500 	 0.015625 	 0.131848 
0.945313 	 0.015625 	 0.116650 
0.953125 	 0.015625 	 0.098967 
0.960938 	 0.015625 	 0.081721 
0.968750 	 0.015625 	 0.065669 
0.976563 	 0.015625 	 0.048286 
0.984375 	 0.015625 	 0.028146 
0.992188 	 0.015625 	 0.008600 
0.000000 	 0.023438 	 0.013422 
0.007813 	 0.023438 	 0.040091 
0.015625 	 0.023438 	 0.066576 
0.023438 	 0.023438 	 0.092151 
0.031250 	 0.023438 	 0.114483 
0.039063 	 0.023438 	 0.139900 
0.046875 	 0.023438 	 0.165394 
0.054688 	 0.023438 	 0.187548 
0.062500 	 0.023438 	 0.209212 
0.070313 	 0.023438 	 0.230048 
0.078125 	 0.023438 	 0.247905 
0.085938 	 0.023438 	 0.266974 
0.093750 	 0.023438 	 0.283241 
0.101563 	 0.023438 	 0.299207 
0.109375 	 0.023438 	 0.313967 
0.117188 	 0.023438 	 0.330344 
0.125000 	 0.023438 	 0.345373 
0.132813 	 0.023438 	 0.355993 
0.140625 	 0.023438 	 0.367438 
0.148438 	 0.023438 	 0.382629 
0.156250 	 0.023438 	 0.395208 
0.164063 	 0.023438 	 0.411995 
0.171875 	 0.023438 	 0.425800 
0.179688 	 0.023438 	 0.438996 
0.187500 	 0.023438 	 0.452666 
0.195313 	 0.023438 	 0.463857 
0.203125 	 0.023438 	 0.474794 
0.210938 	 0.023438 	 0.487124 
0.218750 	 0.023438 	 0.497535 
0.226563 	 0.023438 	 0.507425 
0.234375 	 0.023438 	 0.515032 
0.242188 	 0.023438 	 0.523485 
0.250000 	 0.023438 	 0.533809 
0.257813 	 0.023438 	 0.543325 
0.265625 	 0.023438 	 0.554050 
0.273438 	 0.023438 	 0.564348 
0.281250 	 0.023438 	 0.576228 
0.289063 	 0.023438 	 0.588751 
0.296875 	 0.023438 	 0.603190 
0.304688 	 0.023438 	 0.614365 
0.312500 	 0.023438 	 0.626954 
0.320313 	 0.023438 	 0.637715 
0.328125 	 0.023438 	 0.646858 
0.335938 	 0.023438 	 0.655656 
0.343750 	 0.023438 	 0.663414 
0.351563 	 0.023438 	 0.669743 
0.359375 	 0.023438 	 0.674701 
0.367188 	 0.023438 	 0.679501 
0.375000 	 0.023438 	 0.683149 
0.382813 	 0.023438 	 0.686531 
0.390625 	 0.023438 	 0.690375 
0.398438 	 0.023438 	 0.695928 
0.406250 	 0.023438 	 0.698095 
0.414063 	 0.023438 	 0.701956 
0.421875 	 0.023438 	 0.704817 
0.429688 	 0.023438 	 0.708431 
0.437500 	 0.023438 	 0.710765 
0.445313 	 0.023438 	 0.711934 
0.453125 	 0.023438 	 0.713922 
0.460938 	 0.023438 	 0.713177 
0.468750 	 0.023438 	 0.715374 
0.476563 	 0.023438 	 0.715384 
0.484375 	 0.023438 	 0.715978 
0.492188 	 0.023438 	 0.714076 
0.500000 	 0.023438 	 0.714076 
0.507813 	 0.023438 	 0.715978 
0.515625 	 0.023438 	 0.715384 
0.523438 	 0.023438 	 0.715374 
0.531250 	 0.023438 	 0.713177 
0.539063 	 0.023438 	 0.713922 
0.546875 	 0.023438 	 0.711934 
0.554688 	 0.023438 	 0.710765 
0.562500 	 0.023438 	 0.708431 
0.570313 	 0.023438 	 0.704817 
0.578125 	 0.023438 	 0.701956 
0.585938 	 0.023438 	 0.698095 
0.593750 	 0.023438 	 0.695928 
0.601563 	 0.023438 	 0.690375 
0.609375 	 0.023438 	 0.686531 
0.617188 	 0.023438 	 0.683149 
0.625000 	 0.023438 	 0.679501 
0.632813 	 0.023438 	 0.674701 
0.640625 	 0.023438 	 0.669743 
0.648438 	 0.023438 	 0.663414 
0.656250 	 0.023438 	 0.655656 
0.664063 	 0.023438 	 0.646858 
0.671875 	 0.023438 	 0.637715 
0.679688 	 0.023438 	 0.626954 
0.687500 	 0.023438 	 0.614365 
0.695313 	 0.023438 	 0.603190 
0.703125 	 0.023438 	 0.588751 
0.710938 	 0.023438 	 0.576228 
0.718750 	 0.023438 	 0.564348 
0.726563 	 0.023438 	 0.554050 
0.734375 	 0.023438 	 0.543325 
0.742188 	 0.023438 	 0.533809 
0.750000 	 0.023438 	 0.523485 
0.757813 	 0.023438 	 0.515032 
0.765625 	 0.023438 	 0.507425 
0.773438 	 0.023438 	 0.497535 
0.781250 	 0.023438 	 0.487124 
0.789063 	 0.023438 	 0.474794 
0.796875 	 0.023438 	 0.463857 
0.804688 	 0.023438 	 0.452666 
0.812500 	 0.023438 	 0.438996 
0.820313 	 0.023438 	 0.425800 
0.828125 	 0.023438 	 0.411995 
0.835938 	 0.023438 	 0.395208 
0.843750 	 0.023438 	 0.382629 
0.851563 	 0.023438 	 0.367438 
0.859375 	 0.023438 	 0.355993 
0.867188 	 0.023438 	 0.345373 
0.875000 	 0.023438 	 0.330344 
0.882813 	 0.023438 	 0.313967 
0.890625 	 0.023438 	 0.299207 
0.898438 	 0.023438 	 0.283241 
0.906250 	 0.023438 	 0.266974 
0.914063 	 0.023438 	 0.247905 
0.921875 	 0.023438 	 0.230048 
0.929688 	 0.023438 	 0.209212 
0.937500 	 0.023438 	 0.187548 
0.945313 	 0.023438 	 0.165394 
0.953125 	 0.023438 	 0.139900 
0.960938 	 0.023438 	 0.114483 
0.968750 	 0.023438 	 0.092151 
0.976563 	 0.023438 	 0.066576 
0.984375 	 0.023438 	 0.040091 
0.992188 	 0.023438 	 0.013422 
0.000000 	 0.031250 	 0.017309 
0.007813 	 0.031250 	 0.050996 
0.015625 	 0.031250 	 0.082353 
0.023438 	 0.031250 	 0.114381 
0.031250 	 0.031250 	 0.149430 
0.039063 	 0.031250 	 0.178644 
0.046875 	 0.031250 	 0.206172 
0.054688 	 0.031250 	 0.235967 
0.062500 	 0.031250 	 0.262772 
0.070313 	 0.031250 	 0.287027 
0.078125 	 0.031250 	 0.313142 
0.085938 	 0.031250 	 0.338241 
0.093750 	 0.031250 	 0.361244 
0.101563 	 0.031250 	 0.380505 
0.109375 	 0.031250 	 0.399936 
0.117188 	 0.031250 	 0.418749 
0.125000 	 0.031250 	 0.436123 
0.132813 	 0.031250 	 0.454752 
0.140625 	 0.031250 	 0.474350 
0.148438 	 0.031250 	 0.492057 
0.156250 	 0.031250 	 0.510343 
0.164063 	 0.031250 	 0.528087 
0.171875 	 0.031250 	 0.545728 
0.179688 	 0.031250 	 0.564176 
0.187500 	 0.031250 	 0.583313 
0.195313 	 0.031250 	 0.600552 
0.203125 	 0.031250 	 0.617002 
0.210938 	 0.031250 	 0.633110 
0.218750 	 0.031250 	 0.645588 
0.226563 	 0.031250 	 0.658803 
0.234375 	 0.031250 	 0.672760 
0.242188 	 0.031250 	 0.684403 
0.250000 	 0.031250 	 0.698200 
0.257813 	 0.031250 	 0.711521 
0.265625 	 0.031250 	 0.723833 
0.273438 	 0.031250 	 0.738189 
0.281250 	 0.031250 	 0.750167 
0.289063 	 0.031250 	 0.763971 
0.296875 	 0.031250 	 0.778055 
0.304688 	 0.031250 	 0.793511 
0.312500 	 0.031250 	 0.809592 
0.320313 	 0.031250 	 0.822046 
0.328125 	 0.031250 	 0.835762 
0.335938 	 0.031250 	 0.847197 
0.343750 	 0.031250 	 0.856353 
0.351563 	 0.031250 	 0.866112 
0.359375 	 0.031250 	 0.873026 
0.367188 	 0.031250 	 0.879486 
0.375000 	 0.031250 	 0.884896 
0.382813 	 0.031250 	 0.889542 
0.390625 	 0.031250 	 0.893224 
0.398438 	 0.031250 	 0.895663 
0.406250 	 0.031250 	 0.901136 
0.414063 	 0.031250 	 0.905803 
0.421875 	 0.031250 	 0.909202 
0.429688 	 0.031250 	 0.911456 
0.437500 	 0.031250 	 0.913594 
0.445313 	 0.031250 	 0.916312 
0.453125 	 0.031250 	 0.918743 
0.460938 	 0.031250 	 0.921859 
0.468750 	 0.031250 	 0.922736 
0.476563 	 0.031250 	 0.922866 
0.484375 	 0.031250 	 0.923689 
0.492188 	 0.031250 	 0.925561 
0.500000 	 0.031250 	 0.925561 
0.507813 	 0.031250 	 0.923689 
0.515625 	 0.031250 	 0.922866 
0.523438 	 0.031250 	 0.922736 
0.531250 	 0.031250 	 0.921859 
0.539063 	 0.031250 	 0.918743 
0.546875 	 0.031250 	 0.916312 
0.554688 	 0.031250 	 0.913594 
0.562500 	 0.031250 	 0.911456 
0.570313 	 0.031250 	 0.909202 
0.578125 	 0.031250 	 0.905803 
0.585938 	 0.031250 	 0.901136 
0.593750 	 0.031250 	 0.895663 
0.601563 	 0.031250 	 0.893224 
0.609375 	 0.031250 	 0.889542 
0.617188 	 0.031250 	 0.884896 
0.625000 	 0.031250 	 0.879486 
0.632813 	 0.031250 	 0.873026 
0.640625 	 0.031250 	 0.866112 
0.648438 	 0.031250 	 0.856353 
0.656250 	 0.031250 	 0.847197 
0.664063 	 0.031250 	 0.835762 
0.671875 	 0.031250 	 0.822046 
0.679688 	 0.031250 	 0.809592 
0.687500 	 0.031250 	 0.793511 
0.695313 	 0.031250 	 0.778055 
0.703125 	 0.031250 	 0.763971 
0.710938 	 0.031250 	 0.750167 
0.718750 	 0.031250 	 0.738189 
0.726563 	 0.031250 	 0.723833 
0.734375 	 0.031250 	 0.711521 
0.742188 	 0.031250 	 0.698200 
0.750000 	 0.031250 	 0.684403 
0.757813 	 0.031250 	 0.672760 
0.765625 	 0.031250 	 0.658803 
0.773438 	 0.031250 	 0.645588 
0.781250 	 0.031250 	 0.633110 
0.789063 	 0.031250 	 0.617002 
0.796875 	 0.031250 	 0.600552 
0.804688 	 0.031250 	 0.583313 
0.812500 	 0.031250 	 0.564176 
0.820313 	 0.031250 	 0.545728 
0.828125 	 0.031250 	 0.528087 
0.835938 	 0.031250 	 0.510343 
0.843750 	 0.031250 	 0.492057 
0.851563 	 0.031250 	 0.474350 
0.859375 	 0.031250 	 0.454752 
0.867188 	 0.031250 	 0.436123 
0.875000 	 0.031250 	 0.418749 
0.882813 	 0.031250 	 0.399936 
0.890625 	 0.031250 	 0.380505 
0.898438 	 0.031250 	 0.361244 
0.906250 	 0.031250 	 0.338241 
0.914063 	 0.031250 	 0.313142 
0.921875 	 0.031250 	 0.287027 
0.929688 	 0.031250 	 0.262772 
0.937500 	 0.031250 	 0.235967 
0.945313 	 0.031250 	 0.206172 
0.953125 	 0.031250 	 0.178644 
0.960938 	 0.031250 	 0.149430 
0.968750 	 0.031250 	 0.114381 
0.976563 	 0.031250 	 0.082353 
0.984375 	 0.031250 	 0.050996 
0.992188 	 0.031250 	 0.017309 
0.000000 	 0.039063 	 0.019056 
0.007813 	 0.039063 	 0.057222 
0.015625 	 0.039063 	 0.095750 
0.023438 	 0.039063 	 0.134449 
0.031250 	 0.039063 	 0.173868 
0.039063 	 0.039063 	 0.211022 
0.046875 	 0.039063 	 0.245101 
0.054688 	 0.039063 	 0.278567 
0.062500 	 0.039063 	 0.310924 
0.070313 	 0.039063 	 0.340818 
0.078125 	 0.039063 	 0.370122 
0.085938 	 0.039063 	 0.397908 
0.093750 	 0.039063 	 0.424517 
0.101563 	 0.039063 	 0.453341 
0.109375 	 0.039063 	 0.480989 
0.117188 	 0.039063 	 0.502825 
0.125000 	 0.039063 	 0.524933 
0.132813 	 0.039063 	 0.549415 
0.140625 	 0.039063 	 0.570119 
0.148438 	 0.039063 	 0.592211 
0.156250 	 0.039063 	 0.616171 
0.164063 	 0.039063 	 0.639673 
0.171875 	 0.039063 	 0.664923 
0.179688 	 0.039063 	 0.688894 
0.187500 	 0.039063 	 0.709612 
0.195313 	 0.039063 	 0.731487 
0.203125 	 0.039063 	 0.752297 
0.210938 	 0.039063 	 0.772606 
0.218750 	 0.039063 	 0.792433 
0.226563 	 0.039063 	 0.812388 
0.234375 	 0.039063 	 0.830778 
0.242188 	 0.039063 	 0.849387 
0.250000 	 0.039063 	 0.866903 
0.257813 	 0.039063 	 0.882849 
0.265625 	 0.039063 	 0.899637 
0.273438 	 0.039063 	 0.914930 
0.281250 	 0.039063 	 0.930160 
0.289063 	 0.039063 	 0.946798 
0.296875 	 0.039063 	 0.962525 
0.304688 	 0.039063 	 0.978471 
0.312500 	 0.039063 	 0.993731 
0.320313 	 0.039063 	 1.007960 
0.328125 	 0.039063 	 1.023003 
0.335938 	 0.039063 	 1.036715 
0.343750 	 0.039063 	 1.050688 
0.351563 	 0.039063 	 1.061903 
0.359375 	 0.039063 	 1.070641 
0.367188 	 0.039063 	 1.078508 
0.375000 	 0.039063 	 1.084747 
0.382813 	 0.039063 	 1.091067 
0.390625 	 0.039063 	 1.097485 
0.398438 	 0.039063 	 1.103019 
0.406250 	 0.039063 	 1.106498 
0.414063 	 0.039063 	 1.108960 
0.421875 	 0.039063 	 1.111774 
0.429688 	 0.039063 	 1.115372 
0.437500 	 0.039063 	 1.118189 
0.445313 	 0.039063 	 1.120538 
0.453125 	 0.039063 	 1.121749 
0.460938 	 0.039063 	 1.122196 
0.468750 	 0.039063 	 1.123653 
0.476563 	 0.039063 	 1.124947 
0.484375 	 0.039063 	 1.126078 
0.492188 	 0.039063 	 1.125775 
0.500000 	 0.039063 	 1.125775 
0.507813 	 0.039063 	 1.126078 
0.515625 	 0.039063 	 1.124947 
0.523438 	 0.039063 	 1.123653 
0.531250 	 0.039063 	 1.122196 
0.539063 	 0.039063 	 1.121749 
0.546875 	 0.039063 	 1.120538 
0.554688 	 0.039063 	 1.118189 
0.562500 	 0.039063 	 1.115372 
0.570313 	 0.039063 	 1.111774 
0.578125 	 0.039063 	 1.108960 
0.585938 	 0.039063 	 1.106498 
0.593750 	 0.039063 	 1.103019 
0.601563 	 0.039063 	 1.097485 
0.609375 	 0.039063 	 1.091067 
0.617188 	 0.039063 	 1.084747 
0.625000 	 0.039063 	 1.078508 
0.632813 	 0.039063 	 1.070641 
0.640625 	 0.039063 	 1.061903 
0.648438 	 0.039063 	 1.050688 
0.656250 	 0.039063 	 1.036715 
0.664063 	 0.039063 	 1.023003 
0.671875 	 0.039063 	 1.007960 
0.679688 	 0.039063 	 0.993731 
0.687500 	 0.039063 	 0.978471 
0.695313 	 0.039063 	 0.962525 
0.703125 	 0.039063 	 0.946798 
0.710938 	 0.039063 	 0.930160 
0.718750 	 0.039063 	 0.914930 
0.726563 	 0.039063 	 0.899637 
0.734375 	 0.039063 	 0.882849 
0.742188 	 0.039063 	 0.866903 
0.750000 	 0.039063 	 0.849387 
0.757813 	 0.039063 	 0.830778 
0.765625 	 0.039063 	 0.812388 
0.773438 	 0.039063 	 0.792433 
0.781250 	 0.039063 	 0.772606 
0.789063 	 0.039063 	 0.752297 
0.796875 	 0.039063 	 0.731487 
0.804688 	 0.039063 	 0.709612 
0.812500 	 0.039063 	 0.688894 
0.820313 	 0.039063 	 0.664923 
0.828125 	 0.039063 	 0.639673 
0.835938 	 0.039063 	 0.616171 
0.843750 	 0.039063 	 0.592211 
0.851563 	 0.039063 	 0.570119 
0.859375 	 0.039063 	 0.549415 
0.867188 	 0.039063 	 0.524933 
0.875000 	 0.039063 	 0.502825 
0.882813 	 0.039063 	 0.480989 
0.890625 	 0.039063 	 0.453341 
0.898438 	 0.039063 	 0.424517 
0.906250 	 0.039063 	 0.397908 
0.914063 	 0.039063 	 0.370122 
0.921875 	 0.039063 	 0.340818 
0.929688 	 0.039063 	 0.310924 
0.937500 	 0.039063 	 0.278567 
0.945313 	 0.039063 	 0.245101 
0.953125 	 0.039063 	 0.211022 
0.960938 	 0.039063 	 0.173868 
0.968750 	 0.039063 	 0.134449 
0.976563 	 0.039063 	 0.095750 
0.984375 	 0.039063 	 0.057222 
0.992188 	 0.039063 	 0.019056 
0.000000 	 0.046875 	 0.021523 
0.007813 	 0.046875 	 0.065769 
0.015625 	 0.046875 	 0.112096 
0.023438 	 0.046875 	 0.155995 
0.031250 	 0.046875 	 0.195666 
0.039063 	 0.046875 	 0.238236 
0.046875 	 0.046875 	 0.280072 
0.054688 	 0.046875 	 0.317231 
0.062500 	 0.046875 	 0.353524 
0.070313 	 0.046875 	 0.390745 
0.078125 	 0.046875 	 0.425945 
0.085938 	 0.046875 	 0.460331 
0.093750 	 0.046875 	 0.493423 
0.101563 	 0.046875 	 0.525303 
0.109375 	 0.046875 	 0.555522 
0.117188 	 0.046875 	 0.586179 
0.125000 	 0.046875 	 0.615973 
0.132813 	 0.046875 	 0.644244 
0.140625 	 0.046875 	 0.669847 
0.148438 	 0.046875 	 0.698913 
0.156250 	 0.046875 	 0.727649 
0.164063 	 0.046875 	 0.754880 
0.171875 	 0.046875 	 0.782816 
0.179688 	 0.046875 	 0.810921 
0.187500 	 0.046875 	 0.837785 
0.195313 	 0.046875 	 0.866645 
0.203125 	 0.046875 	 0.893388 
0.210938 	 0.046875 	 0.919940 
0.218750 	 0.046875 	 0.946641 
0.226563 	 0.046875 	 0.971489 
0.234375 	 0.046875 	 0.994155 
0.242188 	 0.046875 	 1.018728 
0.250000 	 0.046875 	 1.041470 
0.257813 	 0.046875 	 1.063205 
0.265625 	 0.046875 	 1.084375 
0.273438 	 0.046875 	 1.101498 
0.281250 	 0.046875 	 1.120918 
0.289063 	 0.046875 	 1.138861 
0.296875 	 0.046875 	 1.156551 
0.304688 	 0.046875 	 1.174229 
0.312500 	 0.046875 	 1.189716 
0.320313 	 0.046875 	 1.206574 
0.328125 	 0.046875 	 1.221848 
0.335938 	 0.046875 	 1.235970 
0.343750 	 0.046875 	 1.251005 
0.351563 	 0.046875 	 1.262497 
0.359375 	 0.046875 	 1.274374 
0.367188 	 0.046875 	 1.283815 
0.375000 	 0.046875 	 1.291951 
0.382813 	 0.046875 	 1.299755 
0.390625 	 0.046875 	 1.305493 
0.398438 	 0.046875 	 1.311793 
0.406250 	 0.046875 	 1.315182 
0.414063 	 0.046875 	 1.318997 
0.421875 	 0.046875 	 1.322006 
0.429688 	 0.046875 	 1.324960 
0.437500 	 0.046875 	 1.327598 
0.445313 	 0.046875 	 1.329418 
0.453125 	 0.046875 	 1.331379 
0.460938 	 0.046875 	 1.331489 
0.468750 	 0.046875 	 1.331981 
0.476563 	 0.046875 	 1.331813 
0.484375 	 0.046875 	 1.332876 
0.492188 	 0.046875 	 1.333450 
0.500000 	 0.046875 	 1.333450 
0.507813 	 0.046875 	 1.332876 
0.515625 	 0.046875 	 1.331813 
0.523438 	 0.046875 	 1.331981 
0.531250 	 0.046875 	 1.331489 
0.539063 	 0.046875 	 1.331379 
0.546875 	 0.046875 	 1.329418 
0.554688 	 0.046875 	 1.327598 
0.562500 	 0.046875 	 1.324960 
0.570313 	 0.046875 	 1.322006 
0.578125 	 0.046875 	 1.318997 
0.585938 	 0.046875 	 1.315182 
0.593750 	 0.046875 	 1.311793 
0.601563 	 0.046875 	 1.305493 
0.609375 	 0.046875 	 1.299755 
0.617188 	 0.046875 	 1.291951 
0.625000 	 0.046875 	 1.283815 
0.632813 	 0.046875 	 1.274374 
0.640625 	 0.046875 	 1.262497 
0.648438 	 0.046875 	 1.251005 
0.656250 	 0.046875 	 1.235970 
0.664063 	 0.046875 	 1.221848 
0.671875 	 0.046875 	 1.206574 
0.679688 	 0.046875 	 1.189716 
0.687500 	 0.046875 	 1.174229 
0.695313 	 0.046875 	 1.156551 
0.703125 	 0.046875 	 1.138861 
0.710938 	 0.046875 	 1.120918 
0.718750 	 0.046875 	 1.101498 
0.726563 	 0.046875 	 1.084375 
0.734375 	 0.046875 	 1.063205 
0.742188 	 0.046875 	 1.041470 
0.750000 	 0.046875 	 1.018728 
0.757813 	 0.046875 	 0.994155 
0.765625 	 0.046875 	 0.971489 
0.773438 	 0.046875 	 0.946641 
0.781250 	 0.046875 	 0.919940 
0.789063 	 0.046875 	 0.893388 
0.796875 	 0.046875 	 0.866645 
0.804688 	 0.046875 	 0.837785 
0.812500 	 0.046875 	 0.810921 
0.820313 	 0.046875 	 0.782816 
0.828125 	 0.046875 	 0.754880 
0.835938 	 0.046875 	 0.727649 
0.843750 	 0.046875 	 0.698913 
0.851563 	 0.046875 	 0.669847 
0.859375 	 0.046875 	 0.644244 
0.867188 	 0.046875 	 0.615973 
0.875000 	 0.046875 	 0.586179 
0.882813 	 0.046875 	 0.555522 
0.890625 	 0.046875 	 0.525303 
0.898438 	 0.046875 	 0.493423 
0.906250 	 0.046875 	 0.460331 
0.914063 	 0.046875 	 0.425945 
0.921875 	 0.046875 	 0.390745 
0.929688 	 0.046875 	 0.353524 
0.937500 	 0.046875 	 0.317231 
0.945313 	 0.046875 	 0.280072 
0.953125 	 0.046875 	 0.238236 
0.960938 	 0.046875 	 0.195666 
0.968750 	 0.046875 	 0.155995 
0.976563 	 0.046875 	 0.112096 
0.984375 	 0.046875 	 0.065769 
0.992188 	 0.046875 	 0.021523 
0.000000 	 0.054688 	 0.024929 
0.007813 	 0.054688 	 0.074155 
0.015625 	 0.054688 	 0.123482 
0.023438 	 0.054688 	 0.172536 
0.031250 	 0.054688 	 0.222321 
0.039063 	 0.054688 	 0.268028 
0.046875 	 0.054688 	 0.313291 
0.054688 	 0.054688 	 0.357159 
0.062500 	 0.054688 	 0.398719 
0.070313 	 0.054688 	 0.440359 