VARIABLES = "Y", "T"
ZONE T = "BLOCK1", I = 128, F = POINT

 0.007813 	 0.099020 
 0.015625 	 0.302586 
 0.023438 	 0.504213 
 0.031250 	 0.714076 
 0.039063 	 0.925561 
 0.046875 	 1.125775 
 0.054688 	 1.333450 
 0.062500 	 1.538999 
 0.070313 	 1.752711 
 0.078125 	 1.971032 
 0.085938 	 2.188355 
 0.093750 	 2.411222 
 0.101563 	 2.626900 
 0.109375 	 2.853199 
 0.117188 	 3.083765 
 0.125000 	 3.315132 
 0.132813 	 3.545866 
 0.140625 	 3.766854 
 0.148438 	 3.996040 
 0.156250 	 4.223856 
 0.164063 	 4.458713 
 0.171875 	 4.700003 
 0.179688 	 4.937579 
 0.187500 	 5.178428 
 0.195313 	 5.416715 
 0.203125 	 5.666418 
 0.210938 	 5.918107 
 0.218750 	 6.156402 
 0.226563 	 6.388839 
 0.234375 	 6.621683 
 0.242188 	 6.862779 
 0.250000 	 7.126997 
 0.257813 	 7.398988 
 0.265625 	 7.660057 
 0.273438 	 7.934107 
 0.281250 	 8.214750 
 0.289063 	 8.516884 
 0.296875 	 8.831364 
 0.304688 	 9.122569 
 0.312500 	 9.412043 
 0.320313 	 9.703464 
 0.328125 	 10.008286 
 0.335938 	 10.324610 
 0.343750 	 10.636987 
 0.351563 	 10.947660 
 0.359375 	 11.260623 
 0.367188 	 11.576418 
 0.375000 	 11.905421 
 0.382813 	 12.245014 
 0.390625 	 12.585333 
 0.398438 	 12.937695 
 0.406250 	 13.283085 
 0.414063 	 13.636302 
 0.421875 	 14.000386 
 0.429688 	 14.370731 
 0.437500 	 14.755054 
 0.445313 	 15.146936 
 0.453125 	 15.549773 
 0.460938 	 15.961065 
 0.468750 	 16.384801 
 0.476563 	 16.814274 
 0.484375 	 17.261260 
 0.492188 	 17.718199 
 0.500000 	 18.190579 
 0.507813 	 18.669137 
 0.515625 	 19.150348 
 0.523438 	 19.648050 
 0.531250 	 20.162919 
 0.539063 	 20.690581 
 0.546875 	 21.225365 
 0.554688 	 21.775895 
 0.562500 	 22.336336 
 0.570313 	 22.913445 
 0.578125 	 23.497912 
 0.585938 	 24.103581 
 0.593750 	 24.695506 
 0.601563 	 25.293149 
 0.609375 	 25.910903 
 0.617188 	 26.540526 
 0.625000 	 27.179675 
 0.632813 	 27.825566 
 0.640625 	 28.478373 
 0.648438 	 29.152607 
 0.656250 	 29.856201 
 0.664063 	 30.563714 
 0.671875 	 31.301708 
 0.679688 	 32.022062 
 0.687500 	 32.777585 
 0.695313 	 33.529234 
 0.703125 	 34.310489 
 0.710938 	 35.112912 
 0.718750 	 35.908729 
 0.726563 	 36.738453 
 0.734375 	 37.578740 
 0.742188 	 38.454182 
 0.750000 	 39.338200 
 0.757813 	 40.229219 
 0.765625 	 41.132729 
 0.773438 	 42.041749 
 0.781250 	 42.959340 
 0.789063 	 43.881112 
 0.796875 	 44.822494 
 0.804688 	 45.788430 
 0.812500 	 46.750648 
 0.820313 	 47.743424 
 0.828125 	 48.743921 
 0.835938 	 49.768717 
 0.843750 	 50.782726 
 0.851563 	 51.829470 
 0.859375 	 52.868995 
 0.867188 	 53.932829 
 0.875000 	 55.000231 
 0.882813 	 56.082803 
 0.890625 	 57.173868 
 0.898438 	 58.287522 
 0.906250 	 59.416706 
 0.914063 	 60.548432 
 0.921875 	 61.692120 
 0.929688 	 62.837752 
 0.937500 	 63.997065 
 0.945313 	 65.158673 
 0.953125 	 66.319766 
 0.960938 	 67.460689 
 0.968750 	 68.612497 
 0.976563 	 69.762913 
 0.984375 	 70.930137 
 0.992188 	 72.085091 
 1.000000 	 73.249591 
