VARIABLES = "X", "T"
ZONE T = "BLOCK1", I = 128, F = POINT

 0.007813 	 0.237364 
 0.015625 	 0.243079 
 0.023438 	 0.728986 
 0.031250 	 1.215834 
 0.039063 	 1.699569 
 0.046875 	 2.185000 
 0.054688 	 2.665008 
 0.062500 	 3.145364 
 0.070313 	 3.621021 
 0.078125 	 4.094879 
 0.085938 	 4.565216 
 0.093750 	 5.032552 
 0.101563 	 5.494909 
 0.109375 	 5.954243 
 0.117188 	 6.407365 
 0.125000 	 6.858760 
 0.132813 	 7.304038 
 0.140625 	 7.744931 
 0.148438 	 8.180564 
 0.156250 	 8.606845 
 0.164063 	 9.027649 
 0.171875 	 9.439917 
 0.179688 	 9.845817 
 0.187500 	 10.244478 
 0.195313 	 10.636754 
 0.203125 	 11.019122 
 0.210938 	 11.393756 
 0.218750 	 11.759256 
 0.226563 	 12.115786 
 0.234375 	 12.467433 
 0.242188 	 12.808826 
 0.250000 	 13.142184 
 0.257813 	 13.465311 
 0.265625 	 13.780099 
 0.273438 	 14.086786 
 0.281250 	 14.385516 
 0.289063 	 14.676719 
 0.296875 	 14.954396 
 0.304688 	 15.225587 
 0.312500 	 15.482796 
 0.320313 	 15.731627 
 0.328125 	 15.971774 
 0.335938 	 16.199161 
 0.343750 	 16.420570 
 0.351563 	 16.628570 
 0.359375 	 16.826008 
 0.367188 	 17.013363 
 0.375000 	 17.187094 
 0.382813 	 17.354430 
 0.390625 	 17.512627 
 0.398438 	 17.658095 
 0.406250 	 17.795476 
 0.414063 	 17.920169 
 0.421875 	 18.036229 
 0.429688 	 18.142932 
 0.437500 	 18.234074 
 0.445313 	 18.317187 
 0.453125 	 18.396927 
 0.460938 	 18.463847 
 0.468750 	 18.518306 
 0.476563 	 18.568788 
 0.484375 	 18.609207 
 0.492188 	 18.637774 
 0.500000 	 18.657083 
 0.507813 	 18.669137 
 0.515625 	 18.669137 
 0.523438 	 18.657083 
 0.531250 	 18.637774 
 0.539063 	 18.609207 
 0.546875 	 18.568788 
 0.554688 	 18.518306 
 0.562500 	 18.463847 
 0.570313 	 18.396927 
 0.578125 	 18.317187 
 0.585938 	 18.234074 
 0.593750 	 18.142932 
 0.601563 	 18.036229 
 0.609375 	 17.920169 
 0.617188 	 17.795476 
 0.625000 	 17.658095 
 0.632813 	 17.512627 
 0.640625 	 17.354430 
 0.648438 	 17.187094 
 0.656250 	 17.013363 
 0.664063 	 16.826008 
 0.671875 	 16.628570 
 0.679688 	 16.420570 
 0.687500 	 16.199161 
 0.695313 	 15.971774 
 0.703125 	 15.731627 
 0.710938 	 15.482796 
 0.718750 	 15.225587 
 0.726563 	 14.954396 
 0.734375 	 14.676719 
 0.742188 	 14.385516 
 0.750000 	 14.086786 
 0.757813 	 13.780099 
 0.765625 	 13.465311 
 0.773438 	 13.142184 
 0.781250 	 12.808826 
 0.789063 	 12.467433 
 0.796875 	 12.115786 
 0.804688 	 11.759256 
 0.812500 	 11.393756 
 0.820313 	 11.019122 
 0.828125 	 10.636754 
 0.835938 	 10.244478 
 0.843750 	 9.845817 
 0.851563 	 9.439917 
 0.859375 	 9.027649 
 0.867188 	 8.606845 
 0.875000 	 8.180564 
 0.882813 	 7.744931 
 0.890625 	 7.304038 
 0.898438 	 6.858760 
 0.906250 	 6.407365 
 0.914063 	 5.954243 
 0.921875 	 5.494909 
 0.929688 	 5.032552 
 0.937500 	 4.565216 
 0.945313 	 4.094879 
 0.953125 	 3.621021 
 0.960938 	 3.145364 
 0.968750 	 2.665008 
 0.976563 	 2.185000 
 0.984375 	 1.699569 
 0.992188 	 1.215834 
 1.000000 	 0.728986 
 1.007813 	 0.243079 
